ITEM: TIMESTEP
0
ITEM: NUMBER OF ATOMS
150
ITEM: BOX BOUNDS pp pp pp
-2.0000000000000000e+01 2.0000000000000000e+01
-2.0000000000000000e+01 2.0000000000000000e+01
-2.0000000000000000e+01 2.0000000000000000e+01
ITEM: ATOMS id type xs ys zs
23 2 0.449434 0.408105 0.0116873
25 2 0.398947 0.446317 0.00159087
30 2 0.30216 0.618994 0.0276677
31 2 0.363581 0.614634 0.0153672
32 2 0.651073 0.622903 0.0114223
34 2 0.628462 0.682336 0.0222624
53 2 0.442459 0.304354 0.0683518
55 2 0.494254 0.407427 0.0599192
58 2 0.40879 0.443396 0.0645576
59 2 0.480207 0.474016 0.0559975
65 2 0.701483 0.618561 0.0514354
90 2 0.301932 0.392069 0.0921992
91 2 0.446772 0.36743 0.0869108
92 2 0.596618 0.360403 0.0781683
129 2 0.585238 0.278269 0.136144
128 2 0.534421 0.303905 0.108441
132 2 0.445044 0.327974 0.142095
133 2 0.562641 0.349339 0.142356
140 2 0.30741 0.634159 0.130701
142 2 0.606884 0.723797 0.111625
144 2 0.41112 0.28438 0.177591
150 2 0.337996 0.385442 0.161056
149 2 0.553961 0.418654 0.146004
148 2 0.621672 0.448672 0.16574
147 2 0.338822 0.575226 0.146802
146 2 0.484746 0.625563 0.161324
145 2 0.417993 0.711182 0.162195
143 2 0.487783 0.253222 0.200951
141 2 0.321474 0.329002 0.183106
139 2 0.472363 0.498146 0.185121
138 2 0.564408 0.500408 0.203554
137 2 0.663599 0.607505 0.18544
136 2 0.434908 0.265864 0.232624
135 2 0.278283 0.438136 0.232039
134 2 0.663083 0.430825 0.237017
131 2 0.742044 0.532478 0.215991
130 2 0.370712 0.552679 0.240741
127 2 0.525271 0.634597 0.219563
126 2 0.583793 0.303698 0.276885
125 2 0.70937 0.37799 0.271912
124 2 0.407891 0.427524 0.277657
123 2 0.264204 0.481995 0.285038
122 2 0.472808 0.490146 0.252024
121 2 0.305566 0.650823 0.279351
120 2 0.510392 0.669536 0.270191
119 2 0.501779 0.731641 0.278074
118 2 0.321739 0.466854 0.320396
117 2 0.529899 0.506777 0.312543
116 2 0.332514 0.556101 0.291735
115 2 0.578141 0.320397 0.33935
114 2 0.52487 0.385135 0.344262
113 2 0.644321 0.602333 0.337603
112 2 0.502491 0.304925 0.384185
111 2 0.443148 0.325534 0.380104
110 2 0.546607 0.424104 0.38846
109 2 0.700922 0.398847 0.358055
108 2 0.327568 0.440408 0.378437
107 2 0.379216 0.47587 0.382912
106 2 0.407907 0.685097 0.357948
105 2 0.558146 0.299399 0.412634
104 2 0.45983 0.364304 0.427597
103 2 0.277585 0.460541 0.412038
102 2 0.365892 0.555153 0.416787
101 2 0.459577 0.609862 0.399277
100 2 0.535081 0.66022 0.428894
99 2 0.399559 0.720912 0.453866
98 2 0.473661 0.31588 0.493722
97 2 0.637137 0.361753 0.482012
96 2 0.263808 0.471002 0.474409
95 2 0.345929 0.506744 0.470529
94 2 0.671676 0.573817 0.487303
93 2 0.727343 0.604589 0.484831
89 2 0.328072 0.646654 0.476832
88 2 0.490611 0.666934 0.475063
87 2 0.552162 0.676978 0.48804
86 2 0.393168 0.498045 0.511062
77 2 0.280172 0.593163 0.53513
85 2 0.614907 0.58697 0.53309
83 2 0.547376 0.74347 0.50063
82 2 0.524291 0.253378 0.546632
81 2 0.607091 0.362867 0.550173
80 2 0.6661 0.387078 0.559238
79 2 0.549469 0.425152 0.561821
78 2 0.729768 0.431169 0.56188
84 2 0.698354 0.597862 0.540282
76 2 0.398983 0.651221 0.541762
75 2 0.602528 0.689923 0.558254
74 2 0.649673 0.331871 0.588028
73 2 0.422078 0.368272 0.599737
72 2 0.305188 0.567351 0.588667
71 2 0.639212 0.547769 0.576775
69 2 0.55894 0.608588 0.572023
70 2 0.631271 0.610358 0.593332
68 2 0.326277 0.676971 0.5917
60 2 0.380845 0.644211 0.602588
67 2 0.465883 0.292099 0.629532
66 2 0.548361 0.303359 0.611713
64 2 0.616766 0.481887 0.637699
63 2 0.613438 0.562553 0.633228
61 2 0.321634 0.623045 0.622955
57 2 0.431291 0.673989 0.633619
56 2 0.469122 0.340831 0.669036
54 2 0.326335 0.364564 0.661396
52 2 0.330487 0.434004 0.645448
51 2 0.394955 0.436036 0.646913
50 2 0.407381 0.497797 0.660826
49 2 0.72892 0.466715 0.646379
48 2 0.284733 0.514641 0.648235
62 2 0.269454 0.590991 0.643827
47 2 0.338465 0.596229 0.678048
46 2 0.519022 0.71727 0.656426
45 2 0.581094 0.725174 0.65071
44 2 0.467624 0.26501 0.697589
43 2 0.56146 0.34533 0.702613
40 2 0.655718 0.332446 0.704702
42 2 0.69617 0.527435 0.689546
37 2 0.4887 0.413168 0.749253
41 2 0.553264 0.313011 0.75584
39 2 0.40622 0.334928 0.758089
38 2 0.648596 0.331835 0.76719
28 2 0.468383 0.463446 0.78518
36 2 0.637946 0.45404 0.755612
35 2 0.33169 0.54481 0.779026
29 2 0.607257 0.422227 0.801861
33 2 0.561119 0.466238 0.79025
26 2 0.477509 0.530771 0.788004
24 2 0.310312 0.588604 0.818724
22 2 0.511022 0.589638 0.791166
21 2 0.540575 0.680118 0.814122
20 2 0.31492 0.354446 0.850247
19 2 0.556456 0.361912 0.825176
18 2 0.479785 0.460915 0.851443
17 2 0.648483 0.462644 0.831316
27 2 0.422714 0.48399 0.823621
16 2 0.594865 0.490785 0.849648
15 2 0.467458 0.568137 0.849213
14 2 0.403025 0.443095 0.868507
13 2 0.266358 0.519607 0.860033
12 2 0.562953 0.622558 0.861954
11 2 0.446894 0.658848 0.869331
9 2 0.612512 0.667379 0.864364
10 2 0.551023 0.683462 0.876356
8 2 0.604442 0.725961 0.888312
7 2 0.44751 0.293431 0.903756
6 2 0.411072 0.678326 0.9171
5 2 0.367271 0.50387 0.959681
4 2 0.694011 0.501417 0.957284
3 2 0.421242 0.534654 0.972898
1 2 0.295425 0.569416 0.989704
2 2 0.739085 0.541152 0.97582
ITEM: TIMESTEP
1000
ITEM: NUMBER OF ATOMS
150
ITEM: BOX BOUNDS pp pp pp
-2.0000000000000000e+01 2.0000000000000000e+01
-2.0000000000000000e+01 2.0000000000000000e+01
-2.0000000000000000e+01 2.0000000000000000e+01
ITEM: ATOMS id type xs ys zs
23 2 0.484705 0.435673 0.966941
25 2 0.400172 0.47652 0.979553
30 2 0.276923 0.621197 0.0597094
31 2 0.363919 0.594914 0.0151929
32 2 0.655478 0.614052 0.0678944
34 2 0.67555 0.705026 0.0383276
53 2 0.469432 0.30279 0.0377032
55 2 0.513366 0.403596 0.0663747
58 2 0.417956 0.415315 0.0664567
59 2 0.513912 0.477018 0.0700183
65 2 0.730833 0.567211 0.0811559
90 2 0.299726 0.394351 0.102331
91 2 0.384251 0.390665 0.127754
92 2 0.614244 0.329371 0.0847685
129 2 0.572973 0.285491 0.132476
128 2 0.531758 0.309795 0.0768223
132 2 0.457504 0.299016 0.16982
133 2 0.516202 0.332367 0.135024
140 2 0.307857 0.632465 0.124096
142 2 0.634807 0.730781 0.127104
144 2 0.34147 0.233415 0.224926
150 2 0.339882 0.423023 0.15948
149 2 0.556287 0.395492 0.152429
148 2 0.637431 0.450185 0.140064
147 2 0.345562 0.5514 0.161186
146 2 0.477906 0.576847 0.144765
145 2 0.370813 0.715465 0.167332
143 2 0.486287 0.248407 0.215997
141 2 0.305623 0.328717 0.149357
139 2 0.515728 0.509145 0.178706
138 2 0.546745 0.473726 0.222054
137 2 0.678436 0.657656 0.170497
136 2 0.417436 0.284124 0.242938
135 2 0.291953 0.478844 0.244125
134 2 0.712884 0.450785 0.223044
131 2 0.73435 0.522453 0.229385
130 2 0.369665 0.542582 0.226796
127 2 0.540235 0.631904 0.220422
126 2 0.563494 0.284527 0.265272
125 2 0.698056 0.419521 0.287541
124 2 0.418359 0.383554 0.276752
123 2 0.230865 0.454374 0.287593
122 2 0.471359 0.486676 0.246235
121 2 0.293021 0.636397 0.257672
120 2 0.49058 0.678416 0.26029
119 2 0.454887 0.719366 0.292091
118 2 0.327052 0.486644 0.29864
117 2 0.525308 0.468216 0.282242
116 2 0.342119 0.559301 0.308656
115 2 0.595959 0.332443 0.337657
114 2 0.517426 0.359309 0.332387
113 2 0.634104 0.603045 0.368214
112 2 0.500084 0.301465 0.363178
111 2 0.442187 0.33971 0.358362
110 2 0.549379 0.419763 0.4044
109 2 0.729044 0.402532 0.359394
108 2 0.341747 0.414506 0.373604
107 2 0.397971 0.456399 0.366933
106 2 0.377091 0.676463 0.340428
105 2 0.587404 0.283446 0.43944
104 2 0.43882 0.368887 0.425678
103 2 0.244549 0.428778 0.436841
102 2 0.338961 0.567757 0.40897
101 2 0.474381 0.600628 0.37603
100 2 0.543109 0.675344 0.434526
99 2 0.368665 0.675786 0.440778
98 2 0.491016 0.344015 0.498335
97 2 0.631166 0.351957 0.500215
96 2 0.287445 0.498539 0.4586
95 2 0.340239 0.489554 0.491899
94 2 0.665251 0.565163 0.443774
93 2 0.713283 0.621705 0.454774
89 2 0.298472 0.642881 0.514434
88 2 0.442034 0.690486 0.489417
87 2 0.545083 0.613791 0.480588
86 2 0.401562 0.486317 0.530612
77 2 0.263117 0.565934 0.545585
85 2 0.625916 0.580208 0.5117
83 2 0.53139 0.818164 0.512757
82 2 0.570733 0.280745 0.561911
81 2 0.589767 0.349695 0.560083
80 2 0.684745 0.373861 0.544568
79 2 0.541121 0.45937 0.548965
78 2 0.735041 0.426343 0.57813
84 2 0.667599 0.635395 0.528273
76 2 0.385768 0.65772 0.529804
75 2 0.619197 0.699801 0.555169
74 2 0.687052 0.33707 0.607226
73 2 0.436704 0.369179 0.617195
72 2 0.331447 0.557008 0.563447
71 2 0.667102 0.552606 0.566968
69 2 0.565596 0.635147 0.581978
70 2 0.639783 0.612133 0.588721
68 2 0.301893 0.723317 0.60294
60 2 0.381398 0.697818 0.618687
67 2 0.474619 0.297341 0.611539
66 2 0.56018 0.281204 0.646478
64 2 0.598011 0.4816 0.574651
63 2 0.584721 0.585856 0.63157
61 2 0.309106 0.601009 0.610431
57 2 0.459717 0.709294 0.614951
56 2 0.482364 0.35463 0.697386
54 2 0.348201 0.332317 0.656775
52 2 0.271932 0.43014 0.648603
51 2 0.423914 0.436508 0.653623
50 2 0.376101 0.501356 0.682391
49 2 0.750852 0.471778 0.637831
48 2 0.312928 0.512377 0.655603
62 2 0.248048 0.626871 0.638788
47 2 0.370707 0.599906 0.665589
46 2 0.520347 0.725331 0.6781
45 2 0.599476 0.738295 0.666587
44 2 0.443868 0.246875 0.701646
43 2 0.545047 0.353823 0.685529
40 2 0.660344 0.321314 0.672857
42 2 0.665738 0.514782 0.694566
37 2 0.458767 0.4159 0.716959
41 2 0.506803 0.279655 0.732232
39 2 0.454191 0.342144 0.773071
38 2 0.66759 0.31825 0.75776
28 2 0.423601 0.43849 0.779387
36 2 0.664675 0.459055 0.732729
35 2 0.386107 0.521914 0.783667
29 2 0.588218 0.427381 0.826815
33 2 0.556213 0.459937 0.781708
26 2 0.495406 0.517819 0.813089
24 2 0.31754 0.601538 0.798899
22 2 0.500919 0.618149 0.77284
21 2 0.54749 0.700203 0.811107
20 2 0.321222 0.324423 0.853651
19 2 0.594743 0.355482 0.820302
18 2 0.475843 0.442922 0.838113
17 2 0.668416 0.46379 0.842109
27 2 0.436264 0.500609 0.828339
16 2 0.595675 0.491045 0.842496
15 2 0.442728 0.57424 0.840912
14 2 0.419969 0.467411 0.881079
13 2 0.238958 0.554236 0.845557
12 2 0.549981 0.635925 0.850555
11 2 0.427147 0.68181 0.892338
9 2 0.624746 0.661738 0.843162
10 2 0.584237 0.682407 0.904246
8 2 0.600507 0.741883 0.911564
7 2 0.432016 0.23132 0.906306
6 2 0.376453 0.670534 0.956408
5 2 0.370978 0.578333 0.930163
4 2 0.707514 0.468837 0.936378
3 2 0.432466 0.547517 0.996223
1 2 0.305014 0.586551 0.997732
2 2 0.737585 0.521767 0.967071
ITEM: TIMESTEP
2000
ITEM: NUMBER OF ATOMS
150
ITEM: BOX BOUNDS pp pp pp
-2.0000000000000000e+01 2.0000000000000000e+01
-2.0000000000000000e+01 2.0000000000000000e+01
-2.0000000000000000e+01 2.0000000000000000e+01
ITEM: ATOMS id type xs ys zs
31 2 0.418802 0.625179 0.0647061
53 2 0.431232 0.317061 0.0120443
58 2 0.393203 0.374879 0.0549414
55 2 0.496196 0.414442 0.0514295
59 2 0.476409 0.493768 0.0353072
30 2 0.239951 0.604863 0.0763627
32 2 0.635549 0.632915 0.0774534
34 2 0.653702 0.725426 0.0261287
128 2 0.5369 0.268181 0.0756776
92 2 0.649841 0.35935 0.0714429
90 2 0.290574 0.395988 0.0813414
65 2 0.729201 0.576538 0.0779386
129 2 0.555797 0.300605 0.127271
133 2 0.509575 0.342681 0.140353
91 2 0.397295 0.405445 0.118377
148 2 0.631967 0.42655 0.148163
140 2 0.296185 0.6185 0.128551
142 2 0.624911 0.749084 0.119921
132 2 0.498946 0.31839 0.200713
141 2 0.268993 0.326107 0.178837
150 2 0.359988 0.428921 0.227534
149 2 0.555596 0.446628 0.140373
139 2 0.559798 0.519963 0.176977
147 2 0.342254 0.54242 0.153018
146 2 0.503607 0.577203 0.103635
137 2 0.677672 0.678389 0.196646
145 2 0.357785 0.66985 0.161711
144 2 0.317695 0.231181 0.218278
143 2 0.508326 0.258991 0.22585
136 2 0.412375 0.272058 0.266697
134 2 0.728599 0.460432 0.179609
135 2 0.284468 0.516638 0.221241
122 2 0.452243 0.494796 0.252194
138 2 0.528925 0.472818 0.217829
131 2 0.741306 0.552393 0.204376
130 2 0.360015 0.531649 0.251014
127 2 0.527688 0.647005 0.192256
126 2 0.567101 0.304522 0.258988
124 2 0.416791 0.391323 0.267274
117 2 0.540229 0.45248 0.307406
121 2 0.294731 0.633016 0.279236
120 2 0.486495 0.715713 0.264601
125 2 0.673202 0.446138 0.302261
123 2 0.217452 0.411228 0.313792
118 2 0.318837 0.445741 0.323484
116 2 0.352564 0.562877 0.306332
119 2 0.423146 0.732273 0.298024
115 2 0.650567 0.332014 0.325243
114 2 0.503675 0.393195 0.337009
106 2 0.426075 0.6693 0.333256
112 2 0.503527 0.287926 0.337252
111 2 0.430125 0.375693 0.341466
108 2 0.303233 0.409065 0.3737
109 2 0.729238 0.398127 0.354295
107 2 0.393971 0.44964 0.354766
101 2 0.445045 0.563985 0.344629
113 2 0.611929 0.602058 0.388329
104 2 0.421108 0.383264 0.455077
110 2 0.57504 0.399727 0.382944
102 2 0.305997 0.556838 0.443344
105 2 0.615675 0.270457 0.450656
103 2 0.25122 0.405879 0.439912
96 2 0.256111 0.506079 0.474312
94 2 0.642879 0.557761 0.437639
93 2 0.691928 0.598799 0.435261
99 2 0.375559 0.647867 0.412804
100 2 0.533714 0.705497 0.419218
98 2 0.527775 0.303462 0.535444
95 2 0.361011 0.500488 0.519232
87 2 0.544445 0.649061 0.480724
88 2 0.423415 0.707622 0.460161
97 2 0.628163 0.342579 0.471511
86 2 0.427995 0.467969 0.534427
85 2 0.638638 0.559449 0.513771
89 2 0.275638 0.672079 0.531832
84 2 0.68747 0.654077 0.479362
76 2 0.403628 0.667767 0.514904
83 2 0.508708 0.848094 0.562866
82 2 0.580596 0.266756 0.544774
81 2 0.61154 0.365227 0.544218
80 2 0.707865 0.367321 0.526365
79 2 0.527857 0.426636 0.54541
77 2 0.267488 0.563081 0.560403
72 2 0.361781 0.560111 0.55458
71 2 0.70046 0.543247 0.541797
75 2 0.574717 0.672325 0.545972
78 2 0.745742 0.410325 0.579103
64 2 0.633083 0.483022 0.621943
69 2 0.532439 0.620151 0.539934
70 2 0.641721 0.588418 0.576517
68 2 0.314712 0.679283 0.591267
67 2 0.496387 0.320666 0.607183
74 2 0.665355 0.352471 0.586379
73 2 0.411326 0.329464 0.576196
49 2 0.76268 0.451394 0.631866
61 2 0.300513 0.580923 0.648572
63 2 0.583923 0.620889 0.651678
62 2 0.231253 0.603653 0.647235
60 2 0.37954 0.684543 0.636219
57 2 0.471837 0.726792 0.613463
66 2 0.568458 0.282659 0.654946
40 2 0.624206 0.30889 0.622306
54 2 0.337879 0.305916 0.627943
52 2 0.239748 0.436877 0.651357
51 2 0.444498 0.456135 0.637292
48 2 0.297562 0.496211 0.692066
47 2 0.39527 0.596139 0.658237
46 2 0.547196 0.778065 0.654291
45 2 0.603492 0.72579 0.702041
44 2 0.456721 0.224965 0.703338
56 2 0.521257 0.373362 0.717769
43 2 0.548661 0.365691 0.656172
50 2 0.361791 0.46279 0.673707
42 2 0.701508 0.549111 0.695308
41 2 0.520725 0.283035 0.715591
37 2 0.499676 0.432784 0.69706
36 2 0.662625 0.488909 0.705697
38 2 0.691674 0.342857 0.741718
39 2 0.470505 0.327849 0.774718
28 2 0.44468 0.39816 0.786835
33 2 0.516901 0.469113 0.764596
35 2 0.379135 0.521776 0.804281
22 2 0.533138 0.629202 0.766296
19 2 0.578131 0.359754 0.856413
26 2 0.482737 0.521034 0.826219
24 2 0.345074 0.615741 0.793862
21 2 0.53299 0.734671 0.83384
20 2 0.338053 0.355285 0.903622
29 2 0.567051 0.442103 0.85352
18 2 0.503453 0.418746 0.838708
17 2 0.645925 0.455579 0.834972
16 2 0.589791 0.498374 0.831353
27 2 0.43559 0.475081 0.80542
13 2 0.295602 0.56343 0.859009
15 2 0.450813 0.54312 0.885113
12 2 0.519533 0.626253 0.857747
9 2 0.607178 0.668751 0.834788
14 2 0.40878 0.435457 0.918685
11 2 0.455231 0.684408 0.877887
7 2 0.420399 0.220774 0.891598
10 2 0.586474 0.632006 0.96108
8 2 0.56483 0.761623 0.899933
4 2 0.705687 0.419015 0.966944
5 2 0.335831 0.617399 0.856225
6 2 0.407712 0.646084 0.9865
23 2 0.519032 0.457068 0.98325
25 2 0.353733 0.488724 0.956499
2 2 0.770817 0.53858 0.976991
3 2 0.453714 0.558029 0.0201874
1 2 0.261465 0.548288 0.00209634
ITEM: TIMESTEP
3000
ITEM: NUMBER OF ATOMS
150
ITEM: BOX BOUNDS pp pp pp
-2.0000000000000000e+01 2.0000000000000000e+01
-2.0000000000000000e+01 2.0000000000000000e+01
-2.0000000000000000e+01 2.0000000000000000e+01
ITEM: ATOMS id type xs ys zs
53 2 0.454184 0.318149 0.0205152
59 2 0.492483 0.538358 0.00539469
1 2 0.216145 0.57187 0.992632
3 2 0.44774 0.583553 0.000956852
34 2 0.647719 0.724202 0.0171643
58 2 0.376751 0.354311 0.0785112
55 2 0.519753 0.374835 0.0468782
31 2 0.39277 0.610088 0.122132
128 2 0.49581 0.255326 0.0851152
92 2 0.674617 0.324124 0.0676568
90 2 0.293529 0.419151 0.144996
30 2 0.212356 0.636529 0.0873325
146 2 0.521396 0.546446 0.106221
65 2 0.754754 0.603078 0.0532667
32 2 0.60864 0.620127 0.086986
129 2 0.605107 0.303975 0.113947
133 2 0.526715 0.36198 0.154788
91 2 0.414615 0.398713 0.128594
149 2 0.507736 0.451179 0.15491
140 2 0.267502 0.634943 0.126874
142 2 0.614426 0.725301 0.11161
148 2 0.643343 0.434799 0.136688
139 2 0.533909 0.557535 0.176563
147 2 0.345214 0.540661 0.145032
145 2 0.361817 0.693556 0.136887
132 2 0.467095 0.340299 0.201756
141 2 0.289338 0.352343 0.193364
134 2 0.720035 0.426736 0.173027
131 2 0.7553 0.553533 0.207367
127 2 0.513946 0.668248 0.167909
137 2 0.680539 0.676049 0.202692
144 2 0.327896 0.214748 0.259315
143 2 0.528605 0.253616 0.200235
150 2 0.352413 0.406385 0.215759
138 2 0.535616 0.462103 0.211059
135 2 0.270665 0.575148 0.220893
136 2 0.425739 0.271472 0.234716
126 2 0.513586 0.31718 0.274021
124 2 0.395154 0.394778 0.2725
122 2 0.473541 0.479713 0.239787
130 2 0.385278 0.514768 0.266975
121 2 0.310314 0.635364 0.309912
120 2 0.460466 0.719334 0.264191
123 2 0.231841 0.407675 0.319479
117 2 0.52814 0.478286 0.335806
125 2 0.641362 0.473241 0.294519
116 2 0.353489 0.550136 0.338843
119 2 0.397637 0.759853 0.229739
112 2 0.494323 0.297257 0.352466
115 2 0.646985 0.361166 0.31897
111 2 0.38023 0.391008 0.337529
114 2 0.445573 0.385987 0.321867
109 2 0.705447 0.406468 0.370324
118 2 0.303397 0.459897 0.292975
107 2 0.403812 0.452748 0.350233
101 2 0.481234 0.570205 0.358578
106 2 0.487256 0.654079 0.293858
108 2 0.297977 0.436692 0.369054
110 2 0.582461 0.378522 0.406412
113 2 0.602315 0.589581 0.438635
99 2 0.395745 0.63278 0.388018
100 2 0.52807 0.6971 0.356001
105 2 0.557282 0.271443 0.445797
104 2 0.4527 0.416885 0.451263
103 2 0.246438 0.382342 0.446836
102 2 0.321435 0.535318 0.428123
94 2 0.644905 0.539966 0.371481
93 2 0.707686 0.60683 0.426687
88 2 0.403367 0.72103 0.485025
97 2 0.667239 0.333652 0.454198
96 2 0.252784 0.492195 0.490931
87 2 0.574271 0.671495 0.490592
84 2 0.663155 0.65804 0.507181
98 2 0.530247 0.272894 0.517685
80 2 0.678604 0.369334 0.518829
86 2 0.416062 0.462326 0.583669
95 2 0.353361 0.48106 0.516995
85 2 0.648514 0.512597 0.472026
89 2 0.274468 0.693335 0.553423
76 2 0.374307 0.646677 0.555485
82 2 0.594042 0.273607 0.549552
81 2 0.592577 0.34545 0.544431
79 2 0.555799 0.455595 0.550708
77 2 0.234349 0.54631 0.549722
72 2 0.374803 0.568255 0.547151
71 2 0.68976 0.535809 0.515407
69 2 0.513103 0.658041 0.536875
75 2 0.587073 0.65548 0.558053
83 2 0.467213 0.842851 0.528369
67 2 0.521621 0.327672 0.574657
73 2 0.414537 0.348286 0.57328
74 2 0.686746 0.345749 0.617303
78 2 0.734138 0.390196 0.609598
70 2 0.589618 0.585518 0.548863
68 2 0.277663 0.713804 0.62638
54 2 0.301782 0.291143 0.621688
40 2 0.62409 0.291726 0.615209
51 2 0.467293 0.454628 0.652889
49 2 0.775436 0.470162 0.654867
64 2 0.631809 0.476638 0.661192
60 2 0.409468 0.665783 0.641799
57 2 0.455993 0.759389 0.624741
66 2 0.562037 0.228456 0.627364
43 2 0.540794 0.323755 0.653183
52 2 0.24432 0.483001 0.614051
50 2 0.407345 0.435108 0.655505
62 2 0.209501 0.585557 0.614041
61 2 0.316062 0.567353 0.622814
47 2 0.350991 0.607179 0.706834
63 2 0.555762 0.617057 0.595552
46 2 0.545307 0.780198 0.662624
44 2 0.464418 0.270525 0.686418
37 2 0.512536 0.445916 0.703726
48 2 0.335181 0.481742 0.664386
36 2 0.663248 0.501611 0.724817
42 2 0.740803 0.582027 0.711929
45 2 0.605755 0.734214 0.661906
41 2 0.521963 0.295031 0.72674
38 2 0.716885 0.314515 0.757337
56 2 0.506817 0.377728 0.737988
39 2 0.46743 0.347856 0.798605
33 2 0.516183 0.460327 0.777619
22 2 0.518712 0.624414 0.696019
28 2 0.456479 0.419583 0.826928
27 2 0.431478 0.483757 0.810847
35 2 0.364418 0.491567 0.824664
24 2 0.377598 0.638469 0.770945
18 2 0.520375 0.424994 0.832502
29 2 0.59066 0.411515 0.851703
17 2 0.679052 0.445069 0.846008
16 2 0.571901 0.465935 0.897669
26 2 0.508907 0.534035 0.845051
5 2 0.323228 0.615423 0.878673
9 2 0.601605 0.652428 0.803524
21 2 0.589207 0.768926 0.832293
7 2 0.475211 0.217125 0.883472
19 2 0.557807 0.316065 0.840009
13 2 0.297249 0.554166 0.860032
15 2 0.438497 0.548462 0.876977
12 2 0.572144 0.666149 0.879496
11 2 0.472779 0.654569 0.86185
20 2 0.352955 0.359553 0.908028
14 2 0.388029 0.415152 0.909394
8 2 0.581349 0.725269 0.920098
25 2 0.335928 0.485936 0.962185
10 2 0.612156 0.61554 0.946337
4 2 0.721919 0.430231 0.943158
23 2 0.527027 0.43846 0.993072
2 2 0.797796 0.530188 0.980512
6 2 0.387974 0.647847 0.0157598
ITEM: TIMESTEP
4000
ITEM: NUMBER OF ATOMS
150
ITEM: BOX BOUNDS pp pp pp
-2.0000000000000000e+01 2.0000000000000000e+01
-2.0000000000000000e+01 2.0000000000000000e+01
-2.0000000000000000e+01 2.0000000000000000e+01
ITEM: ATOMS id type xs ys zs
53 2 0.476186 0.281498 0.00561937
3 2 0.435213 0.518202 0.028869
34 2 0.687492 0.740024 0.0131276
65 2 0.751688 0.569268 0.0684408
30 2 0.235477 0.637145 0.0578954
32 2 0.612586 0.637796 0.0656773
128 2 0.47742 0.23099 0.0894471
129 2 0.586466 0.27605 0.0844484
58 2 0.380326 0.338289 0.0821103
92 2 0.677579 0.357559 0.0731263
91 2 0.41883 0.405625 0.106922
55 2 0.507716 0.426731 0.0828181
147 2 0.404568 0.541117 0.101052
146 2 0.553793 0.568824 0.0857588
31 2 0.384005 0.602857 0.137966
90 2 0.288591 0.380984 0.162742
133 2 0.519877 0.401576 0.153331
148 2 0.621278 0.431619 0.174461
149 2 0.520219 0.464716 0.170974
131 2 0.756522 0.569232 0.161571
139 2 0.544652 0.587368 0.158742
140 2 0.305411 0.64437 0.14296
145 2 0.387322 0.670634 0.155282
142 2 0.575402 0.70043 0.164523
143 2 0.482392 0.241345 0.188153
141 2 0.25478 0.317632 0.206124
150 2 0.36198 0.389511 0.201119
127 2 0.520519 0.681366 0.188309
137 2 0.685052 0.704843 0.179528
132 2 0.429691 0.314157 0.225495
126 2 0.514026 0.291288 0.234035
134 2 0.705116 0.450381 0.224397
122 2 0.472521 0.52719 0.22244
130 2 0.344528 0.564682 0.225709
135 2 0.250508 0.589908 0.22193
136 2 0.384081 0.265115 0.252622
124 2 0.341663 0.424004 0.257008
138 2 0.557232 0.450643 0.252818
125 2 0.632857 0.448381 0.28068
106 2 0.470221 0.615036 0.261248
120 2 0.487596 0.688411 0.275543
119 2 0.417084 0.765044 0.265465
144 2 0.322402 0.24775 0.286428
114 2 0.430083 0.333715 0.314164
115 2 0.679647 0.39617 0.312197
118 2 0.305634 0.485369 0.311261
107 2 0.407698 0.466077 0.299858
112 2 0.487006 0.31701 0.343901
123 2 0.19492 0.374952 0.331676
117 2 0.521365 0.513512 0.337096
94 2 0.660032 0.562581 0.340525
121 2 0.346788 0.639974 0.347502
111 2 0.393261 0.372011 0.372863
108 2 0.298852 0.454402 0.370956
109 2 0.701951 0.476345 0.370868
116 2 0.380431 0.534423 0.35842
101 2 0.501309 0.605112 0.378598
100 2 0.528605 0.713123 0.358357
110 2 0.570049 0.372923 0.424895
102 2 0.307006 0.532838 0.39297
99 2 0.407193 0.641716 0.412987
113 2 0.593532 0.618836 0.428297
105 2 0.525622 0.228642 0.444418
97 2 0.686183 0.315373 0.452493
103 2 0.263387 0.398044 0.45827
93 2 0.67601 0.594159 0.44454
87 2 0.594801 0.679133 0.452821
104 2 0.429428 0.439737 0.479114
96 2 0.240606 0.494558 0.465618
95 2 0.357327 0.489905 0.494144
85 2 0.616525 0.495614 0.49235
71 2 0.724681 0.562594 0.479179
84 2 0.660638 0.65453 0.472781
88 2 0.425908 0.721898 0.498519
98 2 0.507013 0.276459 0.508234
81 2 0.606784 0.365673 0.531288
80 2 0.70719 0.379953 0.502384
69 2 0.512384 0.644317 0.530949
75 2 0.618594 0.658347 0.531434
83 2 0.481818 0.828339 0.522391
67 2 0.501789 0.317166 0.557327
82 2 0.623782 0.297409 0.554634
86 2 0.429491 0.426923 0.549313
72 2 0.399041 0.529653 0.536736
79 2 0.563218 0.505556 0.541197
77 2 0.211069 0.548931 0.539485
76 2 0.389251 0.603565 0.570055
66 2 0.555062 0.254197 0.604032
73 2 0.414869 0.334691 0.574794
70 2 0.595688 0.559982 0.597675
63 2 0.534301 0.611227 0.603901
89 2 0.266211 0.652294 0.577053
40 2 0.624922 0.311429 0.616944
43 2 0.556065 0.337811 0.628861
74 2 0.686121 0.355831 0.607561
50 2 0.430257 0.398765 0.615627
78 2 0.727519 0.416378 0.623849
52 2 0.288199 0.486277 0.615349
62 2 0.206442 0.553975 0.619849
61 2 0.284563 0.566064 0.62934
57 2 0.424381 0.743542 0.64051
68 2 0.246035 0.751958 0.64077
46 2 0.550225 0.773845 0.638653
54 2 0.284273 0.311665 0.660101
44 2 0.457758 0.289548 0.656324
51 2 0.491325 0.46256 0.654977
49 2 0.774961 0.443897 0.677203
64 2 0.617218 0.464629 0.651683
60 2 0.427721 0.645016 0.665569
45 2 0.612526 0.713367 0.667412
48 2 0.314242 0.492408 0.70877
42 2 0.752013 0.555795 0.710778
47 2 0.35328 0.591357 0.692265
22 2 0.493216 0.640017 0.710796
56 2 0.480477 0.405458 0.71715
37 2 0.545319 0.433101 0.738386
33 2 0.494738 0.501582 0.748261
36 2 0.662985 0.520178 0.726308
41 2 0.518051 0.314997 0.780753
24 2 0.372886 0.624171 0.785113
38 2 0.734221 0.300167 0.793007
39 2 0.467388 0.361826 0.815284
35 2 0.35731 0.493121 0.816685
27 2 0.454179 0.476479 0.796683
9 2 0.572598 0.676532 0.812258
19 2 0.586082 0.301991 0.846413
18 2 0.526835 0.387675 0.852557
29 2 0.607842 0.382304 0.849691
28 2 0.462594 0.42791 0.841161
17 2 0.697567 0.43671 0.829994
15 2 0.398575 0.567138 0.830896
26 2 0.480634 0.540925 0.833368
11 2 0.459116 0.668677 0.823338
21 2 0.574736 0.777186 0.84819
7 2 0.475458 0.243358 0.864892
20 2 0.321134 0.362777 0.873929
16 2 0.561527 0.471933 0.874786
13 2 0.319185 0.529619 0.880261
5 2 0.307515 0.608232 0.891903
12 2 0.594382 0.631136 0.908061
14 2 0.364277 0.382728 0.934186
4 2 0.76086 0.393393 0.93502
10 2 0.626667 0.599845 0.957139
8 2 0.58051 0.744323 0.936679
23 2 0.552464 0.434006 0.976444
25 2 0.336896 0.506771 0.966519
59 2 0.518999 0.50765 0.9961
2 2 0.807317 0.516105 0.967138
1 2 0.195197 0.598244 0.991186
6 2 0.386679 0.642847 0.985675
ITEM: TIMESTEP
5000
ITEM: NUMBER OF ATOMS
150
ITEM: BOX BOUNDS pp pp pp
-2.0000000000000000e+01 2.0000000000000000e+01
-2.0000000000000000e+01 2.0000000000000000e+01
-2.0000000000000000e+01 2.0000000000000000e+01
ITEM: ATOMS id type xs ys zs
53 2 0.477146 0.272363 0.994585
3 2 0.404762 0.501506 0.0139932
34 2 0.687298 0.722544 0.0106528
65 2 0.750745 0.562967 0.0481938
30 2 0.271073 0.623403 0.0649104
32 2 0.638403 0.648871 0.0300403
128 2 0.527567 0.235598 0.0636287
129 2 0.605806 0.285185 0.12098
58 2 0.380624 0.338643 0.0875507
92 2 0.679548 0.347772 0.111737
91 2 0.400807 0.415861 0.119021
55 2 0.513493 0.427707 0.0815138
147 2 0.394167 0.532265 0.0729614
146 2 0.546122 0.593728 0.10526
31 2 0.39314 0.586987 0.162296
90 2 0.311616 0.407623 0.177473
133 2 0.514357 0.360833 0.152256
148 2 0.592101 0.421159 0.200929
149 2 0.49532 0.466984 0.144993
131 2 0.787774 0.562008 0.134084
139 2 0.531537 0.561127 0.210167
140 2 0.324777 0.65868 0.157345
145 2 0.400327 0.729801 0.162843
142 2 0.605249 0.689209 0.18715
143 2 0.49344 0.223539 0.207089
141 2 0.273226 0.307281 0.202871
150 2 0.377276 0.362402 0.190222
127 2 0.562509 0.692871 0.240145
137 2 0.675281 0.703223 0.218566
132 2 0.432937 0.275119 0.249222
126 2 0.536105 0.325032 0.236065
134 2 0.729246 0.440605 0.220705
122 2 0.430404 0.520425 0.164316
130 2 0.32148 0.566062 0.207952
135 2 0.256536 0.563057 0.20715
136 2 0.376991 0.236661 0.230587
124 2 0.310218 0.407055 0.265363
138 2 0.546245 0.457549 0.250138
125 2 0.626208 0.454463 0.262264
106 2 0.438377 0.620118 0.27962
120 2 0.453694 0.697775 0.284982
119 2 0.41619 0.756887 0.284187
144 2 0.322925 0.270842 0.280383
114 2 0.433338 0.371622 0.30528
115 2 0.711759 0.38074 0.298201
118 2 0.294444 0.488735 0.269259
107 2 0.404045 0.487411 0.302488
112 2 0.510896 0.269085 0.375799
123 2 0.200928 0.369884 0.321942
117 2 0.550579 0.510577 0.350216
94 2 0.677496 0.553017 0.361329
121 2 0.367155 0.641818 0.339405
111 2 0.378998 0.33172 0.372287
108 2 0.326499 0.458939 0.371741
109 2 0.690486 0.453462 0.355303
116 2 0.419857 0.535261 0.377197
101 2 0.516556 0.61142 0.387846
100 2 0.533517 0.727479 0.367466
110 2 0.562878 0.45953 0.42487
102 2 0.316025 0.59287 0.368409
99 2 0.431012 0.667072 0.446282
113 2 0.575557 0.626148 0.418621
105 2 0.4898 0.238847 0.455199
97 2 0.663424 0.306938 0.42639
103 2 0.282858 0.408692 0.512868
93 2 0.660403 0.568712 0.434002
87 2 0.580182 0.700507 0.410794
104 2 0.444357 0.466435 0.49142
96 2 0.244764 0.488779 0.463747
95 2 0.394106 0.517537 0.483995
85 2 0.601628 0.507468 0.469463
71 2 0.739467 0.551223 0.427391
84 2 0.634621 0.585014 0.492619
88 2 0.410521 0.744127 0.49539
98 2 0.470022 0.290097 0.493353
81 2 0.562079 0.403714 0.534274
80 2 0.707056 0.350856 0.510832
69 2 0.512157 0.658189 0.561822
75 2 0.605989 0.642136 0.512878
83 2 0.535485 0.816046 0.514821
67 2 0.509918 0.325963 0.546372
82 2 0.582727 0.290777 0.541914
86 2 0.389681 0.456863 0.569547
72 2 0.416475 0.530803 0.582063
79 2 0.547396 0.472575 0.533656
77 2 0.191802 0.553638 0.531709
76 2 0.375663 0.597999 0.550206
66 2 0.549478 0.235807 0.594215
73 2 0.401114 0.365929 0.546778
70 2 0.659903 0.540541 0.587183
63 2 0.514199 0.616001 0.619442
89 2 0.279858 0.629991 0.595676
40 2 0.669785 0.28573 0.610709
43 2 0.566119 0.384885 0.626977
74 2 0.649367 0.362305 0.611048
50 2 0.408775 0.438615 0.669715
78 2 0.704158 0.419691 0.696542
52 2 0.275249 0.448594 0.61182
62 2 0.180938 0.573361 0.640496
61 2 0.290846 0.510984 0.639259
57 2 0.411734 0.735831 0.632679
68 2 0.289406 0.756086 0.618127
46 2 0.596226 0.809969 0.636954
54 2 0.262863 0.315586 0.649582
44 2 0.4581 0.338124 0.622176
51 2 0.515788 0.45316 0.634202
49 2 0.804768 0.474474 0.690812
64 2 0.586218 0.479105 0.658321
60 2 0.410053 0.614739 0.651238
45 2 0.616774 0.728686 0.669772
48 2 0.303674 0.490069 0.723613
42 2 0.723537 0.513747 0.736531
47 2 0.353585 0.586222 0.651312
22 2 0.461946 0.619691 0.710751
56 2 0.470735 0.412441 0.75817
37 2 0.543601 0.442029 0.720988
33 2 0.500241 0.505471 0.748157
36 2 0.643045 0.534306 0.737231
41 2 0.526663 0.257495 0.776441
24 2 0.396554 0.635861 0.76633
38 2 0.697261 0.312509 0.781767
39 2 0.493095 0.352993 0.8006
35 2 0.321232 0.50056 0.832515
27 2 0.402717 0.444318 0.801658
9 2 0.544974 0.667935 0.826088
19 2 0.579224 0.340125 0.845702
18 2 0.544745 0.421896 0.814459
29 2 0.605423 0.392891 0.804917
28 2 0.485472 0.415632 0.836136
17 2 0.679715 0.410831 0.844427
15 2 0.385 0.560262 0.845983
26 2 0.476777 0.530182 0.811971
11 2 0.435276 0.693186 0.798824
21 2 0.594272 0.768507 0.816501
7 2 0.453764 0.234252 0.866069
20 2 0.308874 0.356838 0.905092
16 2 0.534072 0.477191 0.849122
13 2 0.358159 0.539959 0.914419
5 2 0.333083 0.61778 0.890542
12 2 0.626434 0.658557 0.89319