ITEM: TIMESTEP
1000
ITEM: NUMBER OF ATOMS
1600
ITEM: BOX BOUNDS pp pp pp
-2.0000000000000000e+01 2.0000000000000000e+01
-2.0000000000000000e+01 2.0000000000000000e+01
-2.0000000000000000e+01 2.0000000000000000e+01
ITEM: ATOMS id type xs ys zs
1363 1 0.997788 0.0106149 0.00609346
1212 1 0.641709 0.991781 0.0330587
1001 1 0.527983 0.0227419 0.0164442
23 1 0.0274651 0.0668562 0.0619433
436 1 0.520958 0.0533393 0.00951426
497 1 0.376089 0.08532 0.0111702
412 1 0.436314 0.115854 0.04781
100 1 0.165349 0.166323 0.0317431
1015 1 0.556629 0.157161 0.00162347
279 1 0.832342 0.203379 0.00913916
111 1 0.17871 0.232757 0.0173679
697 1 0.986592 0.21802 0.00890085
5 1 0.607804 0.267706 0.994058
763 1 0.644258 0.29112 0.00224569
1407 1 0.809089 0.262865 0.0205945
408 1 0.882006 0.302735 0.989019
617 1 0.855827 0.333231 0.035231
1234 1 0.0457916 0.337971 0.0450361
274 1 0.0726163 0.376443 0.999637
456 1 0.0648049 0.317085 0.00397592
1009 1 0.0486181 0.343015 0.997677
312 1 0.0404516 0.400896 0.000700032
1480 1 0.0112124 0.361124 0.995863
1594 2 0.298924 0.388573 0.0256262
908 1 0.167731 0.420302 0.955852
948 1 0.431627 0.411188 0.0232129
101 1 0.623749 0.401722 0.998607
1201 1 0.798654 0.405312 0.0197984
1003 1 0.779713 0.389249 0.0670005
565 1 0.820499 0.409682 0.997613
417 1 0.313691 0.46033 0.055228
739 1 0.616142 0.459009 0.00804356
806 1 0.174337 0.564342 0.00346932
354 1 0.165807 0.538734 0.0172333
566 1 0.864519 0.518281 0.965652
490 1 0.350245 0.565169 0.0441519
1330 1 0.640363 0.578994 0.0113716
135 1 0.656127 0.631872 0.00133695
48 1 0.101959 0.682998 0.0351751
47 1 0.082528 0.668943 0.0331359
926 1 0.404944 0.670932 0.0117475
624 1 0.405545 0.667896 0.0399746
205 1 0.119332 0.705093 0.0262753
1366 1 0.374413 0.68007 0.0374938
1210 1 0.338905 0.7174 0.989833
737 1 0.382816 0.726743 0.994872
1320 1 0.731128 0.702631 0.0470498
816 1 0.0649409 0.755883 0.0111182
1522 2 0.815681 0.767442 0.0666756
750 1 0.245308 0.874464 0.0545152
1552 2 0.778566 0.835351 0.0312821
726 1 0.26245 0.91726 0.0175271
390 1 0.654915 0.94679 0.978548
211 1 0.908293 0.944954 0.00424587
1332 1 0.19929 0.00774045 0.0477276
1018 1 0.758252 0.0384137 0.0471316
532 1 0.286741 0.0749432 0.0972274
1208 1 0.0303692 0.115424 0.0547734
126 1 0.0916809 0.0892822 0.0289211
40 1 0.0382536 0.0954839 0.077766
7 1 0.125806 0.118699 0.0601358
578 1 0.0908484 0.0486955 0.0623716
36 1 0.567801 0.120831 0.0434358
74 1 0.678881 0.0899668 0.0477687
1362 1 0.892023 0.168474 0.0339967
451 1 0.377804 0.20039 0.0493049
1262 1 0.903101 0.225208 0.0281854
386 1 0.905179 0.180427 0.0621234
631 1 0.032644 0.229626 0.0699245
1479 1 0.676146 0.228988 0.0696686
50 1 0.360343 0.298572 0.0860758
326 1 0.561376 0.283932 0.0514641
18 1 0.343697 0.305512 0.0253583
874 1 0.35143 0.303583 0.0592012
1582 2 0.48242 0.292573 0.0749454
324 1 0.872283 0.299922 0.0377377
592 1 0.408832 0.398587 0.028879
462 1 0.431369 0.381453 0.0298772
467 1 0.469992 0.421455 0.0198456
1163 1 0.643884 0.401276 0.0359256
383 1 0.0836729 0.457064 0.050069
1313 1 0.592577 0.448025 0.035003
360 1 0.627549 0.446463 0.068326
931 1 0.906051 0.443333 0.0263445
1412 1 0.649653 0.505501 0.0514672
63 1 0.65492 0.534598 0.068284
1255 1 0.683414 0.51814 0.0670207
661 1 0.70461 0.522026 0.0901779
1218 1 0.0262489 0.610153 0.00672525
742 1 0.00715368 0.566216 0.00221505
275 1 0.656903 0.625136 0.0476545
1364 1 0.779929 0.589278 0.0694702
1093 1 0.812472 0.608719 0.0556085
1349 1 0.560409 0.658854 0.0756086
1039 1 0.595513 0.655663 0.11596
1213 1 0.641744 0.654449 0.0124668
713 1 0.855408 0.606938 0.0572807
1011 1 0.246325 0.650508 0.0216083
840 1 0.604873 0.64956 0.0452888
1054 1 0.335654 0.735915 0.0857769
1190 1 0.675083 0.793936 0.0858839
112 1 0.0672357 0.807101 0.0625782
290 1 0.315584 0.799395 0.0492042
792 1 0.636115 0.823625 0.103592
882 1 0.0630589 0.855483 0.0382682
869 1 0.943588 0.843861 0.0555353
81 1 0.107034 0.977949 0.00571812
1416 1 0.169422 0.963124 0.0676356
433 1 0.370659 0.944776 0.0493849
1323 1 0.28623 0.989186 0.0749805
399 1 0.885061 0.992903 0.095187
1550 2 0.766746 0.074417 0.0775032
230 1 0.00733277 0.0915635 0.10156
551 1 0.0332891 0.0906783 0.112545
525 1 0.233778 0.197837 0.0712002
1103 1 0.254985 0.16679 0.107388
1431 1 0.351457 0.171296 0.101403
684 1 0.3277 0.150229 0.0992131
131 1 0.736317 0.19155 0.0738207
560 1 0.341532 0.20961 0.0834315
280 1 0.67303 0.205184 0.0832829
537 1 0.387095 0.308432 0.104487
1443 1 0.773118 0.334552 0.0876677
960 1 0.449633 0.304917 0.100242
1405 1 0.429758 0.363247 0.103774
826 1 0.746496 0.320794 0.111149
62 1 0.792223 0.359181 0.0718831
709 1 0.745552 0.333669 0.0862476
373 1 0.771489 0.323629 0.143277
642 1 0.979205 0.321026 0.113827
819 1 0.26419 0.354575 0.0984423
988 1 0.482912 0.398696 0.119937
1393 1 0.449657 0.408719 0.0654372
72 1 0.699245 0.459894 0.0848285
320 1 0.967256 0.411039 0.0611712
1095 1 0.544411 0.528699 0.0852035
1036 1 0.676682 0.502518 0.0478911
1081 1 0.793979 0.47558 0.108725
492 1 0.0977787 0.508081 0.107455
918 1 0.51902 0.516326 0.0716718
52 1 0.669374 0.511557 0.0888086
288 1 0.67657 0.553357 0.0543485
109 1 0.824771 0.611641 0.0952458
1008 1 0.296465 0.585734 0.109067
1481 1 0.736402 0.614992 0.0764941
199 1 0.760731 0.614628 0.0902761
314 1 0.86137 0.591533 0.0891844
1231 1 0.807766 0.636613 0.0775238
1326 1 0.864004 0.644501 0.0767958
892 1 0.00783051 0.711583 0.0979133
937 1 0.466478 0.713085 0.0678213
444 1 0.250848 0.733651 0.0846125
1401 1 0.237284 0.724949 0.0563981
623 1 0.655985 0.745603 0.0933122
1108 1 0.790622 0.746645 0.107327
458 1 0.134867 0.784599 0.0572202
1162 1 0.968462 0.786699 0.0616078
670 1 0.443014 0.833472 0.0708213
254 1 0.532636 0.827016 0.0809492
1085 1 0.0460959 0.839858 0.0650903
258 1 0.256726 0.870797 0.114817
1591 2 0.991351 0.870954 0.0688938
876 1 0.0491389 0.865595 0.0842889
939 1 0.153506 0.964357 0.107032
625 1 0.206652 0.965635 0.0835387
441 1 0.181752 0.991397 0.0794375
1230 1 0.471122 0.981583 0.102304
217 1 0.451991 0.956177 0.112419
890 1 0.854073 0.961892 0.0866438
10 1 0.875711 0.970137 0.115868
541 1 0.0642302 0.0179489 0.128794
480 1 0.635324 1.00031 0.0727669
1438 1 0.825835 0.0371412 0.147716
1175 1 0.95806 0.0396065 0.112975
516 1 0.062628 0.0896643 0.120086
430 1 0.280939 0.0803638 0.172829
1564 2 0.604628 0.123393 0.0732323
253 1 0.648659 0.166396 0.0884553
389 1 0.871091 0.215906 0.159042
1433 1 0.103152 0.255104 0.123114
1356 1 0.108911 0.26157 0.159311
813 1 0.132437 0.275322 0.147383
53 1 0.722952 0.30123 0.113874
289 1 0.655982 0.373185 0.0997408
910 1 0.638516 0.30837 0.153471
466 1 0.88093 0.367506 0.118977
962 1 0.942352 0.345019 0.0990941
894 1 0.249937 0.397184 0.111936
719 1 0.824709 0.38866 0.101672
1321 1 0.421931 0.481351 0.137049
1319 1 0.604253 0.426153 0.148321
1236 1 0.82434 0.426625 0.129721
358 1 0.0825661 0.622078 0.152172
1510 2 0.106885 0.772224 0.119558
243 1 0.414096 0.816714 0.136868
415 1 0.51245 0.79587 0.148456
1574 2 0.197771 0.89465 0.11844
588 1 0.458938 0.894345 0.110831
864 1 0.459552 0.906559 0.169115
1512 2 0.69194 0.92387 0.114559
694 1 0.829826 0.989225 0.114533
20 1 0.825586 0.00260491 0.139435
875 1 0.894245 0.963794 0.154511
1116 1 0.194793 0.0464064 0.135717
923 1 0.206132 0.0285143 0.170435
115 1 0.190511 0.0702129 0.157385
733 1 0.929904 0.117771 0.178252
610 1 0.824652 0.129107 0.208445
1593 2 0.154051 0.17942 0.179585
589 1 0.0631521 0.215644 0.185233
428 1 0.0869569 0.191821 0.180535
246 1 0.0694041 0.215408 0.153089
676 1 0.0465809 0.215586 0.143248
648 1 0.125317 0.231678 0.151924
714 1 0.322648 0.1615 0.1825
1226 1 0.340798 0.144163 0.168334
172 1 0.325071 0.23348 0.170558
465 1 0.434557 0.189169 0.174802
147 1 0.449323 0.211764 0.170736
484 1 0.16926 0.244365 0.181663
1293 1 0.659266 0.215977 0.164759
367 1 0.228167 0.246611 0.140622
1000 1 0.54442 0.293471 0.185973
113 1 0.0337687 0.346982 0.154935
981 1 0.345643 0.346445 0.182245
878 1 0.318732 0.39246 0.152531
1575 2 0.757656 0.365102 0.168743
1283 1 0.119945 0.442111 0.200012
576 1 0.138417 0.445048 0.184486
103 1 0.167755 0.44012 0.133933
686 1 0.174561 0.439752 0.170303
340 1 0.677318 0.469074 0.158064
769 1 0.696682 0.43662 0.162442
674 1 0.146094 0.471476 0.174559
862 1 0.342549 0.460535 0.160975
1119 1 0.656935 0.485647 0.154859
1434 1 0.0413719 0.540627 0.118021
478 1 0.217439 0.537319 0.182124
306 1 0.750687 0.550604 0.168433
955 1 0.188506 0.598264 0.157579
457 1 0.583994 0.576229 0.160671
468 1 0.0532608 0.647685 0.124207
178 1 0.0680582 0.628126 0.183231
43 1 0.0976465 0.610493 0.13193
156 1 0.742663 0.61695 0.146884
762 1 0.947489 0.616185 0.161538
1382 1 0.182289 0.652824 0.207773
804 1 0.796052 0.607438 0.141994
1376 1 0.110242 0.72723 0.147765
912 1 0.0824455 0.769894 0.167938
1134 1 0.359167 0.728171 0.157935
1309 1 0.414094 0.848193 0.151328
655 1 0.319708 0.833053 0.13539
264 1 0.189336 0.863403 0.157255
508 1 0.288095 0.885698 0.177053
548 1 0.314198 0.885408 0.165671
575 1 0.348461 0.873517 0.15539
485 1 0.315143 0.882955 0.198735
1516 2 0.898223 0.873355 0.171032
968 1 0.559936 0.949924 0.152501
125 1 0.902153 0.932795 0.158641
621 1 0.603385 0.951288 0.130815
657 1 0.115725 0.0390684 0.181789
1076 1 0.387881 0.0122503 0.1876
1106 1 0.394877 0.0292862 0.216957
1506 2 0.476853 0.046515 0.235315
690 1 0.824826 0.0672769 0.235458
1329 1 0.876209 0.122155 0.170957
251 1 0.830748 0.159033 0.202872
1146 1 0.867195 0.112849 0.224619
463 1 0.894817 0.105031 0.219999
1050 1 0.504941 0.160716 0.163119
1595 2 0.944633 0.164884 0.180409
1132 1 0.338467 0.246224 0.204732
310 1 0.352747 0.230895 0.167799
162 1 0.377192 0.171736 0.230863
563 1 0.243051 0.245382 0.193786
861 1 0.718762 0.252629 0.191354
194 1 0.793573 0.20435 0.215096
308 1 0.964958 0.231152 0.218832
232 1 0.245041 0.253863 0.219542
668 1 0.71051 0.273312 0.240058
22 1 0.328421 0.261507 0.169246
1007 1 0.0675213 0.337316 0.191382
400 1 0.243628 0.370565 0.189503
1286 1 0.704642 0.354663 0.192668
33 1 0.800051 0.369724 0.184129
1160 1 0.974729 0.339309 0.195348
842 1 0.00501258 0.425233 0.174126
687 1 0.265645 0.457762 0.203595
1311 1 0.494791 0.394312 0.175695
1181 1 0.549055 0.388731 0.258664
1295 1 0.704632 0.384242 0.20584
401 1 0.102283 0.491609 0.138024
88 1 0.171057 0.420826 0.227243
38 1 0.165966 0.462482 0.203594
1555 2 0.604349 0.46829 0.196547
1423 1 0.871497 0.495676 0.193246
1473 1 0.385787 0.498492 0.20707
916 1 0.375103 0.501713 0.247514
1049 1 0.395587 0.520646 0.227502
1578 2 0.429127 0.487082 0.182227
1312 1 0.673928 0.503512 0.145343
1375 1 0.0397136 0.520642 0.142624
1354 1 0.40006 0.546379 0.191726
607 1 0.951782 0.592738 0.184451
611 1 0.304544 0.661229 0.212331
139 1 0.54229 0.614652 0.2108
29 1 0.665593 0.632078 0.24069
420 1 0.977697 0.619226 0.222474
595 1 0.204331 0.689055 0.201412
545 1 0.405099 0.696495 0.195728
605 1 0.854799 0.743885 0.184928
967 1 0.804956 0.735459 0.197226
1099 1 0.856633 0.722391 0.201672
940 1 0.613163 0.824991 0.18008
682 1 0.831283 0.804927 0.166805
836 1 0.205774 0.777791 0.212119
1200 1 0.203715 0.795344 0.189376
809 1 0.219832 0.813026 0.180453
30 1 0.809539 0.816207 0.192988
886 1 0.767724 0.811386 0.18531
787 1 0.993951 0.776865 0.195851
907 1 0.63663 0.862633 0.205468
523 1 0.580639 0.850482 0.193047
106 1 0.882671 0.908517 0.233396
93 1 0.0118277 0.97279 0.146917
959 1 0.732369 0.972695 0.185914
839 1 0.734762 0.928538 0.178241
1560 2 0.944575 0.984301 0.198632
1569 2 0.354354 0.979747 0.203329
781 1 0.410076 0.000732673 0.19209
1055 1 0.293702 0.0636489 0.199589
1250 1 0.287609 0.0400449 0.239342
1105 1 0.570196 0.063588 0.246907
1436 1 0.610947 0.0367049 0.284411
343 1 0.278602 0.101307 0.231748
672 1 0.315047 0.104658 0.247485
495 1 0.304992 0.0875174 0.230604
422 1 0.99944 0.0865575 0.262079
1086 1 0.887794 0.147084 0.237807
148 1 0.924134 0.128284 0.266983
252 1 0.654396 0.202227 0.193675
28 1 0.964491 0.202639 0.205837
893 1 0.568462 0.269551 0.252587
1581 2 0.0332953 0.389929 0.240336
228 1 0.648361 0.357158 0.244362
1542 2 0.842671 0.366011 0.219838
818 1 0.76031 0.429921 0.238282
257 1 0.892937 0.398075 0.254457
983 1 0.100998 0.480576 0.204976
140 1 0.225157 0.510315 0.200686
1028 1 0.675488 0.454166 0.214589
1455 1 0.876478 0.451456 0.237969
556 1 0.161376 0.557751 0.243795
751 1 0.00729411 0.605584 0.242667
530 1 0.0345478 0.570483 0.241897
574 1 0.853552 0.575935 0.246788
549 1 0.5125 0.643652 0.2566
418 1 0.639464 0.609196 0.189311
136 1 0.755849 0.643236 0.255004
1472 1 0.371251 0.77216 0.231792
1474 1 0.47583 0.727934 0.224925
216 1 0.794754 0.780528 0.221924
61 1 0.0955122 0.811067 0.184743
1157 1 0.115711 0.813213 0.214983
1543 2 0.520636 0.787384 0.23328
118 1 0.790693 0.829268 0.217782
651 1 0.141236 0.816197 0.25671
1360 1 0.954275 0.868696 0.232456
1467 1 0.223575 0.858785 0.244599
1398 1 0.47731 0.901655 0.210338
429 1 0.00274187 0.0391007 0.274732
221 1 0.980711 0.0658916 0.264396
1486 1 0.989848 0.115454 0.27321
1233 1 0.0871587 0.122545 0.2527
398 1 0.619874 0.116606 0.289035
915 1 0.835509 0.201844 0.284597
504 1 0.854951 0.273491 0.296038
1553 2 0.898688 0.251895 0.274122
725 1 0.0373235 0.348962 0.299766
188 1 0.164152 0.328686 0.257021
1194 1 0.178471 0.327897 0.283015
546 1 0.252612 0.335366 0.254313
699 1 0.506522 0.33207 0.221037
846 1 0.0660222 0.357349 0.234179
974 1 0.103753 0.374122 0.262973
533 1 0.405821 0.387181 0.313579
1373 1 0.496711 0.359039 0.297787
727 1 0.0420519 0.442077 0.241768
1554 2 0.0388556 0.474823 0.285672
539 1 0.552406 0.411754 0.273438
1466 1 0.493812 0.43891 0.280031
338 1 0.657117 0.455196 0.235056
1413 1 0.838303 0.428431 0.286801
336 1 0.847841 0.457553 0.283058
1551 2 0.432609 0.480294 0.304772
509 1 0.0354898 0.611731 0.263197
766 1 0.151946 0.62274 0.269508
746 1 0.510566 0.598184 0.24213
643 1 0.6848 0.609587 0.280824
785 1 0.965571 0.543424 0.260557
1172 1 0.991494 0.632742 0.249092
1497 1 0.392389 0.611956 0.241258
291 1 0.462603 0.625431 0.259657
807 1 0.488214 0.603677 0.259355
37 1 0.874621 0.646461 0.22968
1067 1 0.551165 0.698361 0.303197
1415 1 0.063558 0.726704 0.264328
67 1 0.231367 0.746633 0.234877
832 1 0.748071 0.767648 0.235644
973 1 0.463142 0.759473 0.253162
483 1 0.453834 0.78489 0.236467
612 1 0.961207 0.762521 0.25213
718 1 0.221134 0.812621 0.257145
514 1 0.760508 0.808526 0.269424
1520 2 0.0932159 0.861202 0.234178
1572 2 0.528235 0.844706 0.257532
472 1 0.711199 0.793277 0.299682
98 1 0.862161 0.810474 0.285742
1144 1 0.0867844 0.89818 0.261834
159 1 0.627644 0.871888 0.248135
554 1 0.0956925 0.923228 0.26316
1102 1 0.182656 0.976523 0.272607
1270 1 0.374557 0.942701 0.259474
1549 2 0.537077 0.947034 0.296228
1448 1 0.684746 0.95635 0.27112
933 1 0.715573 0.986593 0.290085
1386 1 0.922946 0.933978 0.279407
419 1 0.898917 0.925667 0.233154
723 1 0.368913 0.973478 0.262079
765 1 0.469277 0.999042 0.268916
1430 1 0.731611 0.98592 0.255515
569 1 0.792322 0.968374 0.242126
823 1 0.739048 0.977448 0.294391
1488 1 0.276056 0.00716988 0.293674
665 1 0.890953 0.0182504 0.288881
593 1 0.895747 0.0346747 0.340799
1051 1 0.263692 0.0393597 0.287764
774 1 0.413405 0.037189 0.261723
255 1 0.742968 0.0737925 0.260669
1068 1 0.756021 0.0860507 0.316056
856 1 0.12464 0.101637 0.272401
1566 2 0.0212085 0.143008 0.290541
296 1 0.580706 0.165072 0.294024
1141 1 0.975607 0.175191 0.28331
1577 2 0.0643613 0.249806 0.28138
594 1 0.102487 0.225476 0.287277
154 1 0.123495 0.249208 0.312924
1143 1 0.197673 0.253329 0.326455
123 1 0.58506 0.288639 0.286853
927 1 0.106709 0.264674 0.275401
1220 1 0.111262 0.280042 0.326675
241 1 0.738453 0.31984 0.276057
722 1 0.0197862 0.337265 0.318515
65 1 0.0481345 0.346202 0.323773
793 1 0.00927886 0.356363 0.333572
488 1 0.158482 0.331292 0.305184
1342 1 0.559987 0.328221 0.31411
1489 1 0.571843 0.346013 0.296267
396 1 0.987877 0.320956 0.306535
1303 1 0.997841 0.354347 0.294199
797 1 0.00301774 0.374708 0.310983
1331 1 0.251023 0.391374 0.270676
80 1 0.28898 0.386409 0.314516
1152 1 0.814139 0.333996 0.335677
169 1 0.322654 0.46228 0.292496
1249 1 0.522882 0.451177 0.290296
1274 1 0.970615 0.457208 0.277515
476 1 0.956424 0.482205 0.265978
1540 2 0.551151 0.506001 0.316361
239 1 0.707466 0.530735 0.297323
395 1 0.457201 0.555685 0.332083
1561 2 0.184968 0.581157 0.319727
969 1 0.567816 0.658503 0.300781
985 1 0.169492 0.718028 0.273602
1421 1 0.374378 0.760237 0.327517
1078 1 0.415645 0.747761 0.318435
645 1 0.0154221 0.735717 0.302909
1207 1 0.613949 0.758966 0.307184
1388 1 0.611641 0.796025 0.320582
606 1 0.323926 0.914124 0.322105
1370 1 0.0839412 0.972057 0.319156
590 1 0.119081 0.895509 0.289633
736 1 0.118629 0.962746 0.292446
1222 1 0.989475 0.00136638 0.335729
266 1 0.690583 0.995614 0.334901
1425 1 0.0944628 0.0846516 0.340199
337 1 0.366386 0.0529851 0.311779
259 1 0.979611 0.00284028 0.305585
1596 2 0.630897 0.155647 0.341557
888 1 0.979653 0.0983906 0.312844
443 1 0.0121743 0.167823 0.371218
857 1 0.751564 0.128113 0.346115
393 1 0.833324 0.172788 0.340956
798 1 0.358503 0.215009 0.320568
1005 1 0.89561 0.171713 0.353786
1355 1 0.143674 0.224122 0.322994
66 1 0.350975 0.250625 0.333141
1271 1 0.603538 0.231904 0.328226
304 1 0.148821 0.260163 0.303354
633 1 0.12347 0.266698 0.350111
531 1 0.243067 0.289799 0.344409
1090 1 0.913564 0.283742 0.309877
345 1 0.928004 0.247872 0.368616
1142 1 0.418175 0.300872 0.343308
166 1 0.700427 0.301533 0.321655
679 1 0.668131 0.266336 0.348285
656 1 0.906933 0.311923 0.33155
932 1 0.327852 0.35919 0.341225
1127 1 0.114443 0.41748 0.339722
660 1 0.129987 0.425366 0.309944
891 1 0.135506 0.445074 0.334216
1151 1 0.158855 0.412827 0.341447
712 1 0.280884 0.4142 0.330699
208 1 0.108228 0.455515 0.380619
305 1 0.202129 0.48002 0.32688
658 1 0.758208 0.529609 0.349884
439 1 0.224556 0.491705 0.312966
277 1 0.282848 0.536979 0.362643
1087 1 0.857043 0.5983 0.342127
1025 1 0.0125005 0.634575 0.335113
1490 1 0.45204 0.671872 0.390345
1045 1 0.7754 0.71047 0.336324
701 1 0.445082 0.689533 0.365635
730 1 0.748718 0.73865 0.3434
1513 2 0.829353 0.730801 0.353906
9 1 0.843829 0.728487 0.30474
1515 2 0.0488803 0.740765 0.333278
1261 1 0.815782 0.751468 0.310025
506 1 0.864413 0.771384 0.352059
1339 1 0.503649 0.829093 0.32181
1240 1 0.00965428 0.85411 0.326147
1272 1 0.199049 0.863706 0.353303
1034 1 0.081194 0.943243 0.3068
1287 1 0.138619 0.948941 0.34104
42 1 0.33128 0.997202 0.362504
598 1 0.66805 0.00171505 0.362543
794 1 0.708574 0.010923 0.379912
637 1 0.333159 0.0349181 0.38087
795 1 0.494611 0.0630049 0.39772
174 1 0.354618 0.160958 0.384356
620 1 0.364532 0.136449 0.336421
1079 1 0.546982 0.16575 0.395194
1529 2 0.420946 0.176431 0.385643
790 1 0.0686848 0.195727 0.390002
34 1 0.302079 0.29888 0.320473
55 1 0.984992 0.279825 0.388594
1004 1 0.428376 0.288283 0.365063
1094 1 0.203654 0.306985 0.365403
1139 1 0.110805 0.398012 0.380974
799 1 0.134782 0.400148 0.344965
35 1 0.510039 0.420359 0.372901
379 1 0.533726 0.420809 0.356219
70 1 0.0902976 0.417503 0.379373
104 1 0.110728 0.446838 0.344062
587 1 0.13304 0.444495 0.363007
1587 2 0.238295 0.444917 0.35533
975 1 0.668963 0.456934 0.364453
1422 1 0.832869 0.455068 0.367263
1485 1 0.326668 0.468308 0.423816
1352 1 0.901811 0.473548 0.395043
426 1 0.114847 0.521702 0.402249
1402 1 0.766613 0.56205 0.367724
1333 1 0.174012 0.663679 0.372376
268 1 0.174163 0.633991 0.394657
991 1 0.709448 0.632026 0.38755
359 1 0.942872 0.656736 0.358027
717 1 0.88349 0.657369 0.385403
1082 1 0.917167 0.666971 0.371014
1138 1 0.085036 0.743306 0.359868
1334 1 0.562576 0.740732 0.380169
887 1 0.873795 0.750154 0.402962
1027 1 0.106481 0.76785 0.342924
1390 1 0.0741141 0.75991 0.39665
527 1 0.106904 0.810039 0.359839
348 1 0.134653 0.758599 0.396697
1264 1 0.809198 0.788788 0.378473
281 1 0.837245 0.77722 0.35214
904 1 0.307686 0.796079 0.359954
493 1 0.0575874 0.869223 0.35495
24 1 0.188057 0.866115 0.405618
640 1 0.676396 0.878423 0.379334
1305 1 0.4149 0.881792 0.375887
1131 1 0.46224 0.908451 0.356782
1397 1 0.489051 0.936368 0.3536
1033 1 0.4866 0.882782 0.404069
1269 1 0.50604 0.899291 0.386982
1429 1 0.64658 0.892358 0.378915
844 1 0.678362 0.901523 0.360609
557 1 0.510831 0.924583 0.363535
596 1 0.696763 0.906601 0.382354
734 1 0.777741 0.968008 0.368661
206 1 0.754602 0.984753 0.335452
999 1 0.749737 0.00842503 0.394663
1183 1 0.803716 0.0193493 0.372908
1060 1 0.904549 0.958464 0.360648
1111 1 0.0354334 0.988471 0.377797
1394 1 0.242867 0.0449667 0.406728
248 1 0.779063 0.00439188 0.402605
757 1 0.958083 0.0265526 0.414908
302 1 0.192676 0.0809386 0.369678
1465 1 0.160546 0.126313 0.415585
555 1 0.188379 0.104838 0.38521
1195 1 0.204247 0.0970858 0.414836
372 1 0.256427 0.114999 0.432714
652 1 0.23355 0.102818 0.414956
641 1 0.274735 0.10005 0.396424
1030 1 0.810187 0.115257 0.395382
1519 2 0.442196 0.208918 0.448604
510 1 0.583681 0.260832 0.449028
327 1 0.536924 0.260607 0.399331
75 1 0.732344 0.268588 0.375436
649 1 0.80583 0.283159 0.405803
1044 1 0.821448 0.264714 0.43945
452 1 0.0288221 0.321967 0.431397
391 1 0.222209 0.310732 0.414014
817 1 0.819618 0.33753 0.413349
570 1 0.243672 0.3375 0.399833
1451 1 0.447102 0.355015 0.414203
78 1 0.981444 0.396751 0.385332
1147 1 0.025152 0.444578 0.401732
524 1 0.607799 0.459488 0.389459
87 1 0.387913 0.522441 0.450243
1378 1 0.517486 0.501298 0.420106
938 1 0.00681874 0.539423 0.392588
1353 1 0.0220123 0.557908 0.419579
1291 1 0.113385 0.534282 0.424395
341 1 0.176958 0.582171 0.410667
292 1 0.429376 0.551404 0.420155
1346 1 0.673835 0.503407 0.409598
157 1 0.168283 0.644584 0.432164
382 1 0.195363 0.640224 0.415955
1527 2 0.238748 0.627159 0.398089
334 1 0.492548 0.620123 0.431649
1176 1 0.649387 0.631455 0.416705
1260 1 0.725511 0.658214 0.429778
411 1 0.75219 0.587432 0.405236
698 1 0.0465205 0.660903 0.417586
567 1 0.0701411 0.679486 0.404772
629 1 0.159345 0.662998 0.405223
654 1 0.773548 0.64655 0.40687
970 1 0.502268 0.706599 0.408639
542 1 0.584264 0.760757 0.404052
167 1 0.129926 0.895269 0.425293
950 1 0.400808 0.897255 0.401039
522 1 0.465841 0.906391 0.400329
1396 1 0.541082 0.90965 0.374748
171 1 0.661417 0.896673 0.404325
1107 1 0.708253 0.898004 0.406789
1482 1 0.685625 0.968904 0.410358
585 1 0.237188 0.940904 0.408148
1246 1 0.254601 0.938895 0.461322
994 1 0.0826931 0.998149 0.384546
364 1 0.610028 0.00202277 0.384109
1199 1 0.798326 0.99328 0.446956
635 1 0.244117 0.0168407 0.411377
57 1 0.450707 0.0647089 0.424763
409 1 0.805872 0.0880123 0.444883
142 1 0.0429164 0.135314 0.471037
214 1 0.251111 0.148551 0.421264
899 1 0.570544 0.127491 0.474208
768 1 0.0307362 0.146983 0.436785
673 1 0.362226 0.19808 0.458586
1164 1 0.634166 0.203928 0.444141
943 1 0.673919 0.162962 0.439207
573 1 0.656883 0.192338 0.429849
41 1 0.628526 0.228849 0.465077
602 1 0.133269 0.226735 0.433813
833 1 0.237454 0.233372 0.411118
917 1 0.286414 0.237506 0.452229
1316 1 0.663289 0.22221 0.431574
425 1 0.636531 0.21825 0.395358
374 1 0.918666 0.261565 0.477156
1338 1 0.838835 0.355674 0.431888
1450 1 0.356141 0.378624 0.483249
972 1 0.490969 0.374151 0.470787
335 1 0.381871 0.386304 0.461015
59 1 0.214568 0.47419 0.440847
347 1 0.168743 0.543204 0.485782
1122 1 0.461419 0.525307 0.382803
361 1 0.966436 0.555633 0.46059
821 1 0.201485 0.63332 0.440972
297 1 0.634118 0.600442 0.426686
877 1 0.724266 0.613541 0.397829
1187 1 0.90955 0.662214 0.457369
1242 1 0.0270023 0.668998 0.439911
94 1 0.0587966 0.654628 0.445014
1445 1 0.634385 0.676839 0.40035
1299 1 0.0666321 0.683454 0.456596
708 1 0.369784 0.753918 0.4705
195 1 0.810622 0.709412 0.438223
1096 1 0.0898287 0.763554 0.453046
1417 1 0.384918 0.786632 0.43086
1056 1 0.441811 0.766278 0.453911
1221 1 0.0748355 0.779607 0.427213
1361 1 0.0623122 0.791002 0.464052
538 1 0.10246 0.751907 0.410369
1149 1 0.101401 0.802205 0.501586
872 1 0.409558 0.772953 0.434687
1452 1 0.0620686 0.83009 0.464794
630 1 0.484667 0.863436 0.448582
14 1 0.575615 0.908517 0.46158
1368 1 0.909566 0.871264 0.44487
667 1 0.0428151 0.887817 0.429222
1239 1 0.0958032 0.911186 0.414452
1117 1 0.294015 0.950165 0.481436
913 1 0.250104 0.976434 0.420634
1493 1 0.100882 0.0496593 0.511045
1358 1 0.633611 0.0522988 0.486642
845 1 0.943474 0.0384908 0.446917
1123 1 0.93623 0.0128047 0.513586
384 1 0.367933 0.0656991 0.48262
1597 2 0.447433 0.150219 0.482751
995 1 0.610645 0.129362 0.474111
54 1 0.792132 0.164535 0.456513
965 1 0.98306 0.186139 0.448574
137 1 0.400666 0.177212 0.467007
132 1 0.420601 0.228834 0.478738
1314 1 0.656438 0.297677 0.477573
1021 1 0.922514 0.270096 0.503571
936 1 0.649752 0.347008 0.461078
865 1 0.21702 0.342392 0.509045
1048 1 0.349445 0.407185 0.455754
12 1 0.0516184 0.386454 0.473592
786 1 0.00262433 0.410314 0.441018
1041 1 0.231137 0.424387 0.501169
956 1 0.65959 0.403706 0.468758
944 1 0.980456 0.413551 0.471461
1112 1 0.0578299 0.495368 0.472997
526 1 0.0859244 0.506047 0.492209
1534 2 0.212557 0.526533 0.48614
73 1 0.482075 0.500871 0.487447
780 1 0.611113 0.560465 0.51642
1278 1 0.220056 0.623856 0.452478
474 1 0.189446 0.629495 0.489785
1238 1 0.224384 0.625636 0.491718
552 1 0.43868 0.627013 0.475944
922 1 0.341977 0.655679 0.521567
1104 1 0.53404 0.653883 0.5057
1384 1 0.538817 0.691485 0.482582
952 1 0.920909 0.692649 0.461187
1528 2 0.964712 0.729873 0.507685
1118 1 0.450999 0.717971 0.495068
1101 1 0.483649 0.760489 0.49656
1530 2 0.486609 0.811398 0.471529
313 1 0.954885 0.827513 0.472378
1180 1 0.184292 0.86804 0.473105
1064 1 0.282915 0.842307 0.475015
1546 2 0.57552 0.849661 0.464903
238 1 0.86396 0.840842 0.485404
158 1 0.444686 0.833272 0.48357
1159 1 0.516286 0.900958 0.495603
124 1 0.222132 0.933181 0.444091
1294 1 0.731101 0.906947 0.531785
1059 1 0.167401 0.0189918 0.531238
449 1 0.304999 0.00360289 0.486183
824 1 0.264533 -0.000275921 0.521408
1449 1 0.502049 0.0097142 0.509264
141 1 0.738881 0.0511688 0.537224
160 1 0.85838 0.0123831 0.551114
1010 1 0.243609 0.0995457 0.536669
747 1 0.497112 0.0701102 0.499971
811 1 0.188697 0.121457 0.54579
1225 1 0.473141 0.128367 0.526476
1061 1 0.185447 0.148316 0.511984
949 1 0.210752 0.192812 0.557754
881 1 0.2828 0.170509 0.533913
1284 1 0.260637 0.206328 0.519422
196 1 0.875984 0.194681 0.550987
1502 2 0.970994 0.192894 0.52824
571 1 0.192171 0.27462 0.512726
392 1 0.150714 0.285429 0.524971
1357 1 0.400088 0.308137 0.498414
1169 1 0.406006 0.289171 0.530385
868 1 0.86347 0.272496 0.519769
829 1 0.369128 0.342674 0.538612
15 1 0.406672 0.339414 0.488456
1156 1 0.291644 0.354023 0.515459
945 1 0.474152 0.388372 0.53612
1188 1 0.23149 0.418069 0.528268
475 1 0.296163 0.42442 0.500939
1244 1 0.571419 0.393478 0.520395
518 1 0.555002 0.401145 0.501998
192 1 0.742261 0.468542 0.533326
619 1 0.719695 0.432043 0.544294
1548 2 0.29237 0.502908 0.492091
1387 1 0.131557 0.495284 0.522623
1341 1 0.118875 0.541829 0.544821
808 1 0.36601 0.536338 0.532255
1296 1 0.336404 0.524847 0.536343
464 1 0.378584 0.551582 0.513679
350 1 0.677259 0.510087 0.506713
825 1 0.708367 0.645361 0.537208
1523 2 0.735533 0.682178 0.532898
369 1 0.277311 0.6422 0.480611
1498 1 0.773106 0.718254 0.515942
165 1 0.166202 0.764645 0.522127
1167 1 0.311443 0.788357 0.510407
1322 1 0.518371 0.769606 0.555973
1464 1 0.685425 0.762883 0.518196
543 1 0.673185 0.757363 0.540434
745 1 0.691321 0.782087 0.539265
270 1 0.920766 0.778012 0.55184
561 1 0.80174 0.819987 0.513405
90 1 0.0535032 0.828348 0.504404
410 1 0.797487 0.807569 0.539458
1022 1 0.883248 0.841937 0.511427
421 1 0.940538 0.849578 0.506614
1381 1 0.936245 0.878326 0.558696
1088 1 0.988326 0.874538 0.480131
1420 1 0.973094 0.880574 0.514284
1128 1 0.557852 0.927882 0.520838
511 1 0.590544 0.956768 0.504481
152 1 0.805406 0.951093 0.519961
1253 1 0.0390891 0.0367591 0.50142
581 1 0.112937 0.980426 0.532546
32 1 0.305325 0.974772 0.509994
1177 1 0.331348 0.98026 0.497815
764 1 0.390718 0.0513048 0.531291
1193 1 0.416003 0.052356 0.517864
1538 2 0.581379 0.991835 0.559
366 1 0.784812 0.971522 0.51038
1178 1 0.885394 0.999804 0.611112
1043 1 0.980902 0.0188445 0.573692
847 1 0.375646 0.0965417 0.552358
688 1 0.617676 0.0388536 0.582142
801 1 0.581407 0.0526813 0.556446
748 1 0.0824768 0.0758477 0.531987
1073 1 0.708955 0.112859 0.59067
489 1 0.160403 0.133001 0.553489
1509 2 0.116052 0.150064 0.545537
437 1 0.159832 0.135098 0.51827
1254 1 0.172185 0.163474 0.573562
1469 1 0.187279 0.177501 0.552633
777 1 0.202041 0.14291 0.553364
1288 1 0.743819 0.142415 0.540422
1315 1 0.300789 0.159649 0.557752
1219 1 0.584732 0.156531 0.567217
1297 1 0.717632 0.225147 0.563342
941 1 0.827868 0.185007 0.545016
177 1 0.984546 0.202084 0.572529
600 1 0.657488 0.212671 0.570686
1518 2 0.674792 0.241074 0.54297
330 1 0.763184 0.24365 0.558284
650 1 0.965282 0.22158 0.561992
1013 1 0.131001 0.295302 0.580854
204 1 0.768821 0.277756 0.532011
1155 1 0.748532 0.267234 0.564244
716 1 0.727119 0.252593 0.548348
469 1 0.905627 0.346061 0.588821
502 1 0.752661 0.346174 0.545089
184 1 0.111426 0.358957 0.554114
1571 2 0.618418 0.364772 0.5465
1098 1 0.852632 0.380397 0.55032
568 1 0.162355 0.390266 0.527563
1211 1 0.543223 0.424324 0.542683
830 1 0.838068 0.368372 0.517931
183 1 0.0575124 0.463344 0.527538
362 1 0.716071 0.459634 0.53708
773 1 0.692138 0.453637 0.583846
1140 1 0.743083 0.470693 0.564313
1337 1 0.873033 0.425994 0.575392
370 1 0.909967 0.43779 0.562254
455 1 0.229211 0.54045 0.569479
450 1 0.279685 0.580865 0.569861
961 1 0.692775 0.562471 0.505798
791 1 0.672313 0.619653 0.568093
1453 1 0.705005 0.62457 0.557475
1461 1 0.791614 0.607974 0.588625
79 1 0.140632 0.68343 0.551103
1351 1 0.221352 0.654528 0.559652
233 1 0.366859 0.691622 0.55598
879 1 0.68242 0.64153 0.556936
1410 1 0.804102 0.638851 0.539134
1282 1 0.196188 0.679114 0.547423
318 1 0.206269 0.703558 0.565409
333 1 0.230325 0.693193 0.558811
1069 1 0.205713 0.684969 0.595772
1277 1 0.251593 0.70716 0.574426
405 1 0.857606 0.724005 0.5804
855 1 0.195795 0.741496 0.571132
1427 1 0.182249 0.764121 0.570551
700 1 0.303012 0.756374 0.545162
815 1 0.328444 0.744152 0.6077
1031 1 0.404689 0.77527 0.539834
1505 2 0.0536458 0.813404 0.570244
278 1 0.719297 0.866247 0.57986
577 1 0.15072 0.033288 0.564562
46 1 0.134461 0.08065 0.570762